57 
 TIme: 0 fs -- step count: 0 
Fe 	 0.049225594848394394 	 1.6423912048339844 	 7.95993709564209 10 0 0 
N 	 12.844340324401855 	 2.56359601020813 	 7.964048862457275 10 0 0 
N 	 0.9695643782615662 	 3.3405771255493164 	 7.9516777992248535 10 0 0 
N 	 1.7452442646026611 	 0.7213173508644104 	 7.964211463928223 10 0 0 
N 	 13.620623588562012 	 15.004634857177734 	 7.96103572845459 10 0 0 
N 	 11.302343368530273 	 0.6809782385826111 	 7.962152481079102 10 0 0 
N 	 3.28755259513855 	 2.6040079593658447 	 7.962613105773926 10 0 0 
N 	 1.0080738067626953 	 13.46133041381836 	 7.95261287689209 10 0 0 
N 	 13.580286979675293 	 4.883359909057617 	 7.956851959228516 10 0 0 
C 	 12.651456832885742 	 3.9416849613189697 	 7.964419841766357 10 0 0 
C 	 11.585667610168457 	 1.9725626707077026 	 7.968090057373047 10 0 0 
C 	 11.229203224182129 	 4.238184928894043 	 7.969144344329834 10 0 0 
C 	 10.560249328613281 	 2.9982218742370605 	 7.973506450653076 10 0 0 
C 	 9.164336204528809 	 2.925586223602295 	 7.9744791984558105 10 0 0 
C 	 10.517335891723633 	 5.441683292388916 	 7.963877201080322 10 0 0 
C 	 9.123793601989746 	 5.368607521057129 	 7.959720611572266 10 0 0 
C 	 8.45524787902832 	 4.126491069793701 	 7.965120792388916 10 0 0 
C 	 0.3798845410346985 	 4.600241184234619 	 7.947768688201904 10 0 0 
C 	 2.3467941284179688 	 3.5330097675323486 	 7.954089164733887 10 0 0 
C 	 1.408500075340271 	 5.626392841339111 	 7.9378581047058105 10 0 0 
C 	 2.6463468074798584 	 4.954493522644043 	 7.94427490234375 10 0 0 
C 	 3.8521578311920166 	 5.66074800491333 	 7.936738014221191 10 0 0 
C 	 1.3418068885803223 	 7.022342205047607 	 7.9206624031066895 10 0 0 
C 	 2.5464234352111816 	 7.727336406707764 	 7.911569595336914 10 0 0 
C 	 3.7858991622924805 	 7.054873466491699 	 7.919137001037598 10 0 0 
C 	 1.9364535808563232 	 14.403973579406738 	 7.961206912994385 10 0 0 
C 	 3.004603147506714 	 1.3119515180587769 	 7.964545249938965 10 0 0 
C 	 3.3568480014801025 	 14.105918884277344 	 7.961252212524414 10 0 0 
C 	 4.02895450592041 	 0.28378844261169434 	 7.960920810699463 10 0 0 
C 	 5.425660133361816 	 0.3491160571575165 	 7.949283599853516 10 0 0 
C 	 4.062168121337891 	 12.89903736114502 	 7.953490734100342 10 0 0 
C 	 5.455584526062012 	 12.965682029724121 	 7.938312530517578 10 0 0 
C 	 6.129107475280762 	 14.205301284790039 	 7.935227870941162 10 0 0 
C 	 14.208541870117188 	 13.743755340576172 	 7.951022148132324 10 0 0 
C 	 12.244078636169434 	 14.813862800598145 	 7.95625638961792 10 0 0 
C 	 13.177623748779297 	 12.71878433227539 	 7.9381890296936035 10 0 0 
C 	 11.941954612731934 	 13.394346237182617 	 7.942727088928223 10 0 0 
C 	 10.731825828552246 	 12.696133613586426 	 7.936424255371094 10 0 0 
C 	 13.235701560974121 	 11.32202434539795 	 7.926468372344971 10 0 0 
C 	 12.026811599731445 	 10.62396240234375 	 7.916197299957275 10 0 0 
C 	 10.790372848510742 	 11.301946640014648 	 7.921841621398926 10 0 0 
H 	 11.042372703552246 	 6.397445201873779 	 7.96368408203125 10 0 0 
H 	 8.659680366516113 	 1.9588258266448975 	 7.9816131591796875 10 0 0 
H 	 8.536705017089844 	 6.287779331207275 	 7.952683448791504 10 0 0 
H 	 7.364193916320801 	 4.107934951782227 	 7.960977077484131 10 0 0 
H 	 0.3784676790237427 	 7.533129692077637 	 7.915567874908447 10 0 0 
H 	 4.805927276611328 	 5.131964683532715 	 7.945071220397949 10 0 0 
H 	 2.532830238342285 	 8.818387985229492 	 7.899201393127441 10 0 0 
H 	 4.70771598815918 	 7.638824939727783 	 7.914426326751709 10 0 0 
H 	 14.195172309875488 	 10.8041410446167 	 7.9256181716918945 10 0 0 
H 	 9.781888008117676 	 13.23188304901123 	 7.944494724273682 10 0 0 
H 	 12.034334182739258 	 9.532865524291992 	 7.903205871582031 10 0 0 
H 	 9.86556339263916 	 10.72279167175293 	 7.914417266845703 10 0 0 
H 	 3.5318636894226074 	 11.94623851776123 	 7.9573163986206055 10 0 0 
H 	 5.936319828033447 	 1.312678337097168 	 7.949203014373779 10 0 0 
H 	 6.038874626159668 	 12.043989181518555 	 7.92648983001709 10 0 0 
H 	 7.220230579376221 	 14.218891143798828 	 7.920723915100098 10 0 0 
57 
 TIme: 1 fs -- step count: 1 
Fe 	 0.04931887984275818 	 1.6424219608306885 	 7.95993709564209 10 0 0 
N 	 12.842253684997559 	 2.5647199153900146 	 7.964048862457275 10 0 0 
N 	 0.9706369042396545 	 3.342379331588745 	 7.9516777992248535 10 0 0 
N 	 1.7468128204345703 	 0.7222939133644104 	 7.964211463928223 10 0 0 
N 	 13.619487762451172 	 15.00256633758545 	 7.961014747619629 10 0 0 
N 	 11.302831649780273 	 0.6833303570747375 	 7.962152481079102 10 0 0 
N 	 3.2853691577911377 	 2.603372097015381 	 7.962612152099609 10 0 0 
N 	 1.009753942489624 	 13.462967872619629 	 7.952622413635254 10 0 0 
N 	 13.578584671020508 	 4.881669044494629 	 7.956857204437256 10 0 0 
C 	 12.651750564575195 	 3.9416983127593994 	 7.964419841766357 10 0 0 
C 	 11.585803031921387 	 1.972320556640625 	 7.968090057373047 10 0 0 
C 	 11.228833198547363 	 4.237853527069092 	 7.969144344329834 10 0 0 
C 	 10.560322761535645 	 2.998689889907837 	 7.973505020141602 10 0 0 
C 	 9.166486740112305 	 2.9298877716064453 	 7.974446773529053 10 0 0 
C 	 10.514942169189453 	 5.437500476837158 	 7.963877201080322 10 0 0 
C 	 9.126371383666992 	 5.364725112915039 	 7.959751605987549 10 0 0 
C 	 8.459858894348145 	 4.1264801025390625 	 7.965131759643555 10 0 0 
C 	 0.3822402060031891 	 4.599501132965088 	 7.947768688201904 10 0 0 
C 	 2.3468213081359863 	 3.532600164413452 	 7.954089164733887 10 0 0 
C 	 1.409044623374939 	 5.626337051391602 	 7.9378581047058105 10 0 0 
C 	 2.646026134490967 	 4.954860687255859 	 7.94427490234375 10 0 0 
C 	 3.8479957580566406 	 5.663140296936035 	 7.936704158782959 10 0 0 
C 	 1.346118688583374 	 7.020153045654297 	 7.920687198638916 10 0 0 
C 	 2.5464046001434326 	 7.722723484039307 	 7.911624431610107 10 0 0 
C 	 3.782045841217041 	 7.052336692810059 	 7.91916561126709 10 0 0 
C 	 1.9363346099853516 	 14.401677131652832 	 7.9611921310424805 10 0 0 
C 	 3.0044424533843994 	 1.3124891519546509 	 7.964545249938965 10 0 0 
C 	 3.3562517166137695 	 14.104263305664062 	 7.96124792098999 10 0 0 
C 	 4.029851913452148 	 0.285263329744339 	 7.960914611816406 10 0 0 
C 	 5.422350883483887 	 0.3468736410140991 	 7.9492998123168945 10 0 0 
C 	 4.064579010009766 	 12.903127670288086 	 7.95346736907959 10 0 0 
C 	 5.453040599822998 	 12.969480514526367 	 7.938357830047607 10 0 0 
C 	 6.125668048858643 	 14.203320503234863 	 7.935262680053711 10 0 0 
C 	 14.206194877624512 	 13.744482040405273 	 7.951022148132324 10 0 0 
C 	 12.245967864990234 	 14.812275886535645 	 7.95625638961792 10 0 0 
C 	 13.177067756652832 	 12.71883773803711 	 7.9381890296936035 10 0 0 
C 	 11.942285537719727 	 13.39393138885498 	 7.942727088928223 10 0 0 
C 	 10.735965728759766 	 12.693702697753906 	 7.936392307281494 10 0 0 
C 	 13.231396675109863 	 11.324240684509277 	 7.926468372344971 10 0 0 
C 	 12.02685260772705 	 10.62857437133789 	 7.916252613067627 10 0 0 
C 	 10.794241905212402 	 11.304461479187012 	 7.921873092651367 10 0 0 
H 	 11.05312728881836 	 6.4172282218933105 	 7.96368408203125 10 0 0 
H 	 8.64903736114502 	 1.9390063285827637 	 7.981753826141357 10 0 0 
H 	 8.524757385253906 	 6.3063645362854 	 7.952542304992676 10 0 0 
H 	 7.3423333168029785 	 4.107608795166016 	 7.960901260375977 10 0 0 
H 	 0.3586813807487488 	 7.543878555297852 	 7.915461540222168 10 0 0 
H 	 4.825757026672363 	 5.121074199676514 	 7.945243835449219 10 0 0 
H 	 2.5326340198516846 	 8.840049743652344 	 7.898957252502441 10 0 0 
H 	 4.725941181182861 	 7.650400161743164 	 7.914335250854492 10 0 0 
H 	 14.214935302734375 	 10.793196678161621 	 7.925595760345459 10 0 0 
H 	 9.762097358703613 	 13.242715835571289 	 7.944660186767578 10 0 0 
H 	 12.03441333770752 	 9.511198043823242 	 7.902955532073975 10 0 0 
H 	 9.847267150878906 	 10.711298942565918 	 7.914273262023926 10 0 0 
H 	 3.5209596157073975 	 11.926398277282715 	 7.957388877868652 10 0 0 
H 	 5.946832656860352 	 1.3344043493270874 	 7.949203014373779 10 0 0 
H 	 6.050701141357422 	 12.025367736816406 	 7.926247596740723 10 0 0 
H 	 7.243371963500977 	 14.217794418334961 	 7.92041540145874 10 0 0 
57 
 TIme: 2 fs -- step count: 2 
Fe 	 0.049593325704336166 	 1.6425122022628784 	 7.95993709564209 10 0 0 
N 	 12.836164474487305 	 2.5680019855499268 	 7.964048862457275 10 0 0 
N 	 0.9737671613693237 	 3.3476643562316895 	 7.9516777992248535 10 0 0 
N 	 1.751405119895935 	 0.7251496911048889 	 7.964211463928223 10 0 0 
N 	 13.616158485412598 	 14.996502876281738 	 7.960954189300537 10 0 0 
N 	 11.304267883300781 	 0.6902150511741638 	 7.962193965911865 10 0 0 
N 	 3.2790002822875977 	 2.6015145778656006 	 7.962564468383789 10 0 0 
N 	 1.0146864652633667 	 13.467768669128418 	 7.952670097351074 10 0 0 
N 	 13.573603630065918 	 4.876718521118164 	 7.956904888153076 10 0 0 
C 	 12.652630805969238 	 3.9417378902435303 	 7.964384078979492 10 0 0 
C 	 11.586210250854492 	 1.9715930223464966 	 7.968043804168701 10 0 0 
C 	 11.227714538574219 	 4.236889362335205 	 7.969119071960449 10 0 0 
C 	 10.560535430908203 	 3.000079393386841 	 7.973457336425781 10 0 0 
C 	 9.170981407165527 	 2.9390578269958496 	 7.97437047958374 10 0 0 
C 	 10.509797096252441 	 5.428664684295654 	 7.963877201080322 10 0 0 
C 	 9.131880760192871 	 5.3565592765808105 	 7.959810733795166 10 0 0 
C 	 8.469616889953613 	 4.126371383666992 	 7.965179443359375 10 0 0 
C 	 0.389111191034317 	 4.5973219871521 	 7.947768688201904 10 0 0 
C 	 2.346886157989502 	 3.531383991241455 	 7.954089164733887 10 0 0 
C 	 1.4106498956680298 	 5.626176834106445 	 7.9378581047058105 10 0 0 
C 	 2.6450917720794678 	 4.955965995788574 	 7.944238662719727 10 0 0 
C 	 3.8392136096954346 	 5.668274879455566 	 7.936621189117432 10 0 0 
C 	 1.355311393737793 	 7.015585899353027 	 7.920734882354736 10 0 0 
C 	 2.5462942123413086 	 7.712927341461182 	 7.911742210388184 10 0 0 
C 	 3.773895263671875 	 7.046893119812012 	 7.919226169586182 10 0 0 
C 	 1.9359543323516846 	 14.394967079162598 	 7.96114444732666 10 0 0 
C 	 3.0039515495300293 	 1.3140661716461182 	 7.964510440826416 10 0 0 
C 	 3.3545467853546143 	 14.099437713623047 	 7.96120023727417 10 0 0 
C 	 4.03250789642334 	 0.28953713178634644 	 7.960866928100586 10 0 0 
C 	 5.414473056793213 	 0.3437567949295044 	 7.949347496032715 10 0 0 
C 	 4.069739818572998 	 12.911721229553223 	 7.9534196853637695 10 0 0 
C 	 5.447617530822754 	 12.977418899536133 	 7.938453197479248 10 0 0 
C 	 6.11932373046875 	 14.197554588317871 	 7.935310363769531 10 0 0 
C 	 14.199345588684082 	 13.746624946594238 	 7.951022148132324 10 0 0 
C 	 12.251498222351074 	 14.807646751403809 	 7.956218242645264 10 0 0 
C 	 13.17542839050293 	 12.71899127960205 	 7.9381890296936035 10 0 0 
C 	 11.943256378173828 	 13.392702102661133 	 7.942727088928223 10 0 0 
C 	 10.744715690612793 	 12.688468933105469 	 7.936336994171143 10 0 0 
C 	 13.2222318649292 	 11.328861236572266 	 7.926468372344971 10 0 0 
C 	 12.027006149291992 	 10.638360023498535 	 7.916367530822754 10 0 0 
C 	 10.802427291870117 	 11.309868812561035 	 7.92193603515625 10 0 0 
H 	 11.061030387878418 	 6.432043552398682 	 7.96368408203125 10 0 0 
H 	 8.6406888961792 	 1.9243823289871216 	 7.981844425201416 10 0 0 
H 	 8.515759468078613 	 6.320163249969482 	 7.952436923980713 10 0 0 
H 	 7.325802803039551 	 4.107438087463379 	 7.960836887359619 10 0 0 
H 	 0.34415799379348755 	 7.552175998687744 	 7.915379047393799 10 0 0 
H 	 4.840770244598389 	 5.112974643707275 	 7.945370674133301 10 0 0 
H 	 2.5326120853424072 	 8.856244087219238 	 7.898784637451172 10 0 0 
H 	 4.739508152008057 	 7.659051418304443 	 7.914278030395508 10 0 0 
H 	 14.229433059692383 	 10.784736633300781 	 7.925581455230713 10 0 0 
H 	 9.746967315673828 	 13.250479698181152 	 7.944770812988281 10 0 0 
H 	 12.034344673156738 	 9.494994163513184 	 7.902770519256592 10 0 0 
H 	 9.833656311035156 	 10.702704429626465 	 7.914164066314697 10 0 0 
H 	 3.5129125118255615 	 11.911412239074707 	 7.957431793212891 10 0 0 
H 	 5.95456075668335 	 1.3533872365951538 	 7.949240207672119 10 0 0 
H 	 6.059641361236572 	 12.011422157287598 	 7.926063060760498 10 0 0 
H 	 7.2629170417785645 	 14.214773178100586 	 7.9201579093933105 10 0 0 
57 
 TIme: 3 fs -- step count: 3 
Fe 	 0.05004540830850601 	 1.6426599025726318 	 7.95993709564209 10 0 0 
N 	 12.826176643371582 	 2.5733840465545654 	 7.964096546173096 10 0 0 
N 	 0.9788985252380371 	 3.3564062118530273 	 7.9516777992248535 10 0 0 
N 	 1.7589776515960693 	 0.7298478484153748 	 7.964211463928223 10 0 0 
N 	 13.61064624786377 	 14.986458778381348 	 7.9608540534973145 10 0 0 
N 	 11.306636810302734 	 0.7015592455863953 	 7.9622416496276855 10 0 0 
N 	 3.2685744762420654 	 2.59846568107605 	 7.962516784667969 10 0 0 
N 	 1.022862195968628 	 13.475703239440918 	 7.952744483947754 10 0 0 
N 	 13.565397262573242 	 4.868556976318359 	 7.956965446472168 10 0 0 
C 	 12.654152870178223 	 3.9418060779571533 	 7.964336395263672 10 0 0 
C 	 11.586918830871582 	 1.9703352451324463 	 7.967996120452881 10 0 0 
C 	 11.225790023803711 	 4.235324859619141 	 7.969071388244629 10 0 0 
C 	 10.560821533203125 	 3.0024259090423584 	 7.973409652709961 10 0 0 
C 	 9.176217079162598 	 2.95013165473938 	 7.9742751121521 10 0 0 
C 	 10.503478050231934 	 5.418151378631592 	 7.963877201080322 10 0 0 
C 	 9.138575553894043 	 5.346872329711914 	 7.959906101226807 10 0 0 
C 	 8.481285095214844 	 4.126100540161133 	 7.965227127075195 10 0 0 
C 	 0.40038344264030457 	 4.593680381774902 	 7.947723388671875 10 0 0 
C 	 2.346938133239746 	 3.5293307304382324 	 7.954089164733887 10 0 0 
C 	 1.4133235216140747 	 5.625924587249756 	 7.937810897827148 10 0 0 
C 	 2.6435725688934326 	 4.957877159118652 	 7.944190979003906 10 0 0 
C 	 3.8287875652313232 	 5.674556732177734 	 7.936525821685791 10 0 0 
C 	 1.3664284944534302 	 7.010258197784424 	 7.920782566070557 10 0 0 
C 	 2.5460398197174072 	 7.701176166534424 	 7.9118852615356445 10 0 0 
C 	 3.7641735076904297 	 7.04025411605835 	 7.919321537017822 10 0 0 
C 	 1.9352272748947144 	 14.383927345275879 	 7.961054801940918 10 0 0 
C 	 3.0030758380889893 	 1.3166804313659668 	 7.964462757110596 10 0 0 
C 	 3.3518471717834473 	 14.091501235961914 	 7.961142539978027 10 0 0 
C 	 4.036992073059082 	 0.2964695394039154 	 7.9608025550842285 10 0 0 
C 	 5.403572082519531 	 0.34265270829200745 	 7.949440956115723 10 0 0 
C 	 4.076013565063477 	 12.921880722045898 	 7.95335578918457 10 0 0 
C 	 5.441080570220947 	 12.986776351928711 	 7.938548564910889 10 0 0 
C 	 6.113214015960693 	 14.18806266784668 	 7.935358047485352 10 0 0 
C 	 14.188097953796387 	 13.750216484069824 	 7.951022148132324 10 0 0 
C 	 12.260642051696777 	 14.800087928771973 	 7.956170558929443 10 0 0 
C 	 13.172696113586426 	 12.71923542022705 	 7.9381890296936035 10 0 0 
C 	 11.944870948791504 	 13.390645980834961 	 7.942727088928223 10 0 0 
C 	 10.755111694335938 	 12.682053565979004 	 7.936241626739502 10 0 0 
C 	 13.211153984069824 	 11.334245681762695 	 7.926468372344971 10 0 0 
C 	 12.027318954467773 	 10.650094032287598 	 7.916510581970215 10 0 0 
C 	 10.812190055847168 	 11.31646728515625 	 7.922031402587891 10 0 0 
H 	 11.052994728088379 	 6.417959690093994 	 7.96368408203125 10 0 0 
H 	 8.647394180297852 	 1.9390664100646973 	 7.981711387634277 10 0 0 
H 	 8.524211883544922 	 6.306564807891846 	 7.952542781829834 10 0 0 
H 	 7.341336250305176 	 4.107844352722168 	 7.960891246795654 10 0 0 
H 	 0.35892632603645325 	 7.545120716094971 	 7.915450572967529 10 0 0 
H 	 4.826979637145996 	 5.120909214019775 	 7.945244312286377 10 0 0 
H 	 2.5330421924591064 	 8.840437889099121 	 7.898979187011719 10 0 0 
H 	 4.726058483123779 	 7.650600433349609 	 7.914361000061035 10 0 0 
H 	 14.214694023132324 	 10.791868209838867 	 7.925581455230713 10 0 0 
H 	 9.76040267944336 	 13.241877555847168 	 7.944633483886719 10 0 0 
H 	 12.034003257751465 	 9.510798454284668 	 7.902969837188721 10 0 0 
H 	 9.847169876098633 	 10.711075782775879 	 7.914274215698242 10 0 0 
H 	 3.520942449569702 	 11.9252347946167 	 7.957347869873047 10 0 0 
H 	 5.946870803833008 	 1.3448584079742432 	 7.9492878913879395 10 0 0 
H 	 6.051370143890381 	 12.02478313446045 	 7.92622709274292 10 0 0 
H 	 7.251829147338867 	 14.210234642028809 	 7.920309066772461 10 0 0 
57 
 TIme: 4 fs -- step count: 4 
Fe 	 0.05067044124007225 	 1.6428624391555786 	 7.95993709564209 10 0 0 
N 	 12.812374114990234 	 2.5808215141296387 	 7.964144229888916 10 0 0 
N 	 0.9859855771064758 	 3.368642807006836 	 7.9516777992248535 10 0 0 
N 	 1.769530177116394 	 0.736372709274292 	 7.964211463928223 10 0 0 
N 	 13.602919578552246 	 14.972375869750977 	 7.9607110023498535 10 0 0 
N 	 11.309940338134766 	 0.7173393368721008 	 7.962313175201416 10 0 0 
N 	 3.2542076110839844 	 2.594247817993164 	 7.962423801422119 10 0 0 
N 	 1.0343217849731445 	 13.486772537231445 	 7.9528398513793945 10 0 0 
N 	 13.553987503051758 	 4.857198715209961 	 7.957060813903809 10 0 0 
C 	 12.656408309936523 	 3.941901445388794 	 7.964282035827637 10 0 0 
C 	 11.587979316711426 	 1.9684710502624512 	 7.967909336090088 10 0 0 
C 	 11.2229585647583 	 4.233199596405029 	 7.969023704528809 10 0 0 
C 	 10.561095237731934 	 3.0057926177978516 	 7.973315715789795 10 0 0 
C 	 9.182254791259766 	 2.963407516479492 	 7.974173069000244 10 0 0 
C 	 10.495768547058105 	 5.405738353729248 	 7.963877201080322 10 0 0 
C 	 9.146686553955078 	 5.335346221923828 	 7.960001468658447 10 0 0 
C 	 8.495221138000488 	 4.1256489753723145 	 7.965274810791016 10 0 0 
C 	 0.41599225997924805 	 4.588499546051025 	 7.947675704956055 10 0 0 
C 	 2.3468987941741943 	 3.5263671875 	 7.954089164733887 10 0 0 
C 	 1.4170899391174316 	 5.6255974769592285 	 7.937763214111328 10 0 0 
C 	 2.641498327255249 	 4.960704326629639 	 7.944128513336182 10 0 0 
C 	 3.8165132999420166 	 5.682189464569092 	 7.936426162719727 10 0 0 
C 	 1.3797810077667236 	 7.0040998458862305 	 7.920854568481445 10 0 0 
C 	 2.5456252098083496 	 7.687091827392578 	 7.912058353424072 10 0 0 
C 	 3.752570152282715 	 7.032200336456299 	 7.919431686401367 10 0 0 
C 	 1.9340283870697021 	 14.368602752685547 	 7.960938453674316 10 0 0 
C 	 3.001713275909424 	 1.3203517198562622 	 7.964415073394775 10 0 0 
C 	 3.348289728164673 	 14.080453872680664 	 7.961047172546387 10 0 0 
C 	 4.04346227645874 	 0.30592504143714905 	 7.960707187652588 10 0 0 
C 	 5.389378547668457 	 0.3431722819805145 	 7.949563980102539 10 0 0 
C 	 4.083557605743408 	 12.933881759643555 	 7.95326042175293 10 0 0 
C 	 5.4332661628723145 	 12.997928619384766 	 7.938672065734863 10 0 0 
C 	 6.10683012008667 	 14.174781799316406 	 7.935360431671143 10 0 0 
C 	 14.172502517700195 	 13.755353927612305 	 7.951022148132324 10 0 0 
C 	 12.273452758789062 	 14.78968620300293 	 7.95611572265625 10 0 0 
C 	 13.168840408325195 	 12.719565391540527 	 7.9382243156433105 10 0 0 
C 	 11.94714069366455 	 13.387737274169922 	 7.942727088928223 10 0 0 
C 	 10.767354965209961 	 12.674245834350586 	 7.936146259307861 10 0 0 
C 	 13.197854042053223 	 11.340460777282715 	 7.926468372344971 10 0 0 
C 	 12.02779769897461 	 10.664154052734375 	 7.9166717529296875 10 0 0 
C 	 10.82384204864502 	 11.324477195739746 	 7.922126770019531 10 0 0 
H 	 11.036775588989258 	 6.389088153839111 	 7.96368408203125 10 0 0 
H 	 8.661822319030762 	 1.968833088874817 	 7.981472969055176 10 0 0 
H 	 8.541412353515625 	 6.279242992401123 	 7.952755928039551 10 0 0 
H 	 7.373284339904785 	 4.108531951904297 	 7.961000442504883 10 0 0 
H 	 0.3886432647705078 	 7.530284881591797 	 7.91559362411499 10 0 0 
H 	 4.798243045806885 	 5.137197971343994 	 7.944982528686523 10 0 0 
H 	 2.533693790435791 	 8.808477401733398 	 7.899354457855225 10 0 0 
H 	 4.699047088623047 	 7.633553504943848 	 7.914504051208496 10 0 0 
H 	 14.185032844543457 	 10.80689811706543 	 7.925581455230713 10 0 0 
H 	 9.788666725158691 	 13.224740028381348 	 7.94435977935791 10 0 0 
H 	 12.033526420593262 	 9.542741775512695 	 7.903361797332764 10 0 0 
H 	 9.874300956726074 	 10.72797679901123 	 7.9145002365112305 10 0 0 
H 	 3.537160873413086 	 11.953775405883789 	 7.957204818725586 10 0 0 
H 	 5.93168830871582 	 1.3234896659851074 	 7.94933557510376 10 0 0 
H 	 6.034543991088867 	 12.05180549621582 	 7.926557540893555 10 0 0 
H 	 7.226388454437256 	 14.204730987548828 	 7.920648574829102 10 0 0 
57 
 TIme: 5 fs -- step count: 5 
Fe 	 0.05146270617842674 	 1.6431161165237427 	 7.95993709564209 10 0 0 
N 	 12.794818878173828 	 2.590280532836914 	 7.964191913604736 10 0 0 
N 	 0.994992733001709 	 3.3844714164733887 	 7.9516777992248535 10 0 0 
N 	 1.7831041812896729 	 0.744731068611145 	 7.964211463928223 10 0 0 
N 	 13.592906951904297 	 14.954122543334961 	 7.960522174835205 10 0 0 
N 	 11.314184188842773 	 0.7375581860542297 	 7.962408542633057 10 0 0 
N 	 3.2360100746154785 	 2.5888798236846924 	 7.9623284339904785 10 0 0 
N 	 1.0490996837615967 	 13.500959396362305 	 7.95297908782959 10 0 0 
N 	 13.53937816619873 	 4.842631816864014 	 7.957174301147461 10 0 0 
C 	 12.659507751464844 	 3.9420063495635986 	 7.964186668395996 10 0 0 
C 	 11.589470863342285 	 1.9659215211868286 	 7.967813968658447 10 0 0 
C 	 11.21907901763916 	 4.230548858642578 	 7.968963146209717 10 0 0 
C 	 10.561239242553711 	 3.0102782249450684 	 7.973220348358154 10 0 0 
C 	 9.189906120300293 	 2.9806876182556152 	 7.974030017852783 10 0 0 
C 	 10.485611915588379 	 5.389742851257324 	 7.963877201080322 10 0 0 
C 	 9.157344818115234 	 5.320272445678711 	 7.960130214691162 10 0 0 
C 	 8.513432502746582 	 4.12501859664917 	 7.965322494506836 10 0 0 
C 	 0.4359191954135895 	 4.581646919250488 	 7.947628021240234 10 0 0 
C 	 2.34665584564209 	 3.5223913192749023 	 7.954089164733887 10 0 0 
C 	 1.4219977855682373 	 5.625193119049072 	 7.937715530395508 10 0 0 
C 	 2.6388938426971436 	 4.964601039886475 	 7.944033145904541 10 0 0 
C 	 3.8007192611694336 	 5.692234039306641 	 7.936283111572266 10 0 0 
C 	 1.3971774578094482 	 6.996283054351807 	 7.920949935913086 10 0 0 
C 	 2.54504132270813 	 7.668659210205078 	 7.912281036376953 10 0 0 
C 	 3.7374026775360107 	 7.021628379821777 	 7.919576168060303 10 0 0 
C 	 1.9322547912597656 	 14.349064826965332 	 7.9607954025268555 10 0 0 
C 	 2.9997122287750244 	 1.3251166343688965 	 7.964320182800293 10 0 0 
C 	 3.3440418243408203 	 14.06626033782959 	 7.960934162139893 10 0 0 
C 	 4.052162170410156 	 0.31776362657546997 	 7.960579872131348 10 0 0 
C 	 5.3707194328308105 	 0.34343257546424866 	 7.949719429016113 10 0 0 
C 	 4.093346118927002 	 12.949482917785645 	 7.953150272369385 10 0 0 
C 	 5.423142433166504 	 13.012661933898926 	 7.938831806182861 10 0 0 
C 	 6.0979533195495605 	 14.157548904418945 	 7.935406684875488 10 0 0 
C 	 14.152548789978027 	 13.762186050415039 	 7.951022148132324 10 0 0 
C 	 12.290060043334961 	 14.77651596069336 	 7.956020355224609 10 0 0 
C 	 13.163810729980469 	 12.719991683959961 	 7.938271999359131 10 0 0 
C 	 11.950105667114258 	 13.383939743041992 	 7.942727088928223 10 0 0 
C 	 10.783103942871094 	 12.66397476196289 	 7.936031341552734 10 0 0 
C 	 13.180521011352539 	 11.348358154296875 	 7.926468372344971 10 0 0 
C 	 12.028464317321777 	 10.68255615234375 	 7.9168853759765625 10 0 0 
C 	 10.839073181152344 	 11.33499526977539 	 7.922258377075195 10 0 0 
H 	 11.024286270141602 	 6.3671674728393555 	 7.96368408203125 10 0 0 
H 	 8.672541618347168 	 1.9917497634887695 	 7.981274127960205 10 0 0 
H 	 8.554174423217773 	 6.258829116821289 	 7.952913761138916 10 0 0 
H 	 7.397521495819092 	 4.109080791473389 	 7.961082935333252 10 0 0 
H 	 0.4113815426826477 	 7.519315242767334 	 7.915708065032959 10 0 0 
H 	 4.776216983795166 	 5.1498637199401855 	 7.944783687591553 10 0 0 
H 	 2.5342650413513184 	 8.784448623657227 	 7.8996453285217285 10 0 0 
H 	 4.678781032562256 	 7.620791435241699 	 7.9146246910095215 10 0 0 
H 	 14.162362098693848 	 10.817983627319336 	 7.925581455230713 10 0 0 
H 	 9.810248374938965 	 13.211185455322266 	 7.944151401519775 10 0 0 
H 	 12.033086776733398 	 9.566741943359375 	 7.903662204742432 10 0 0 
H 	 9.894661903381348 	 10.74063777923584 	 7.914663314819336 10 0 0 
H 	 3.549428701400757 	 11.97530460357666 	 7.957085609436035 10 0 0 
H 	 5.9213457107543945 	 1.3119579553604126 	 7.94938325881958 10 0 0 
H 	 6.022291660308838 	 12.071869850158691 	 7.926802635192871 10 0 0 
H 	 7.211527347564697 	 14.19891357421875 	 7.920848846435547 10 0 0 
57 
 TIme: 6 fs -- step count: 6 
Fe 	 0.05241551995277405 	 1.6434177160263062 	 7.95993709564209 10 0 0 
N 	 12.773567199707031 	 2.6017305850982666 	 7.964239597320557 10 0 0 
N 	 1.005898118019104 	 3.40403151512146 	 7.9516777992248535 10 0 0 
N 	 1.79978346824646 	 0.7549521327018738 	 7.964211463928223 10 0 0 
N 	 13.580503463745117 	 14.931509017944336 	 7.96028995513916 10 0 0 
N 	 11.319378852844238 	 0.7621929049491882 	 7.962504863739014 10 0 0 
N 	 3.2140979766845703 	 2.5823802947998047 	 7.962196350097656 10 0 0 
N 	 1.067065954208374 	 13.518058776855469 	 7.953129768371582 10 0 0 
N 	 13.521578788757324 	 4.824862480163574 	 7.957317352294922 10 0 0 
C 	 12.663540840148926 	 3.942034959793091 	 7.9640913009643555 10 0 0 
C 	 11.591508865356445 	 1.9626606702804565 	 7.96768856048584 10 0 0 
C 	 11.213961601257324 	 4.227400779724121 	 7.968867778778076 10 0 0 
C 	 10.561135292053223 	 3.0160253047943115 	 7.973090171813965 10 0 0 
C 	 9.199451446533203 	 3.002786636352539 	 7.9738450050354 10 0 0 
C 	 10.47248649597168 	 5.369495391845703 	 7.963877201080322 10 0 0 
C 	 9.171034812927246 	 5.300960063934326 	 7.960289478302002 10 0 0 
C 	 8.536825180053711 	 4.124185085296631 	 7.9654011726379395 10 0 0 
C 	 0.4601835608482361 	 4.572952747344971 	 7.947580337524414 10 0 0 
C 	 2.346055507659912 	 3.5172746181488037 	 7.954089164733887 10 0 0 
C 	 1.4281272888183594 	 5.624704837799072 	 7.9376678466796875 10 0 0 
C 	 2.635769844055176 	 4.969777584075928 	 7.94393253326416 10 0 0 
C 	 3.7806949615478516 	 5.705239772796631 	 7.93609619140625 10 0 0 
C 	 1.4194132089614868 	 6.986544609069824 	 7.921049118041992 10 0 0 
C 	 2.5442605018615723 	 7.645035266876221 	 7.912570476531982 10 0 0 
C 	 3.7179925441741943 	 7.008066177368164 	 7.919766902923584 10 0 0 
C 	 1.9300105571746826 	 14.325593948364258 	 7.960606575012207 10 0 0 
C 	 2.9968619346618652 	 1.3310164213180542 	 7.964224815368652 10 0 0 
C 	 3.3393096923828125 	 14.048859596252441 	 7.960791110992432 10 0 0 
C 	 4.063403606414795 	 0.33182233572006226 	 7.96043062210083 10 0 0 
C 	 5.346974849700928 	 0.34275034070014954 	 7.949910640716553 10 0 0 
C 	 4.105785846710205 	 12.969419479370117 	 7.953007221221924 10 0 0 
C 	 5.41035270690918 	 13.031744956970215 	 7.939035892486572 10 0 0 
C 	 6.085664749145508 	 14.13615894317627 	 7.935454368591309 10 0 0 
C 	 14.12818431854248 	 13.770906448364258 	 7.951022148132324 10 0 0 
C 	 12.310648918151855 	 14.760639190673828 	 7.955924987792969 10 0 0 
C 	 13.157515525817871 	 12.720534324645996 	 7.938319683074951 10 0 0 
C 	 11.953836441040039 	 13.379190444946289 	 7.942727088928223 10 0 0 
C 	 10.803060531616211 	 12.6506929397583 	 7.935888290405273 10 0 0 
C 	 13.158363342285156 	 11.35820484161377 	 7.926468372344971 10 0 0 
C 	 12.029350280761719 	 10.706146240234375 	 7.9171576499938965 10 0 0 
C 	 10.858563423156738 	 11.348487854003906 	 7.922423839569092 10 0 0 
H 	 11.01720905303955 	 6.355269908905029 	 7.96368408203125 10 0 0 
H 	 8.677882194519043 	 2.004582643508911 	 7.981142520904541 10 0 0 
H 	 8.561105728149414 	 6.247526168823242 	 7.953009128570557 10 0 0 
H 	 7.410862922668457 	 4.109433650970459 	 7.961130619049072 10 0 0 
H 	 0.4241790473461151 	 7.513792037963867 	 7.915757179260254 10 0 0 
H 	 4.764410018920898 	 5.156981468200684 	 7.944676876068115 10 0 0 
H 	 2.534710168838501 	 8.771021842956543 	 7.899810791015625 10 0 0 
H 	 4.667387962341309 	 7.613656520843506 	 7.914720058441162 10 0 0 
H 	 14.149629592895508 	 10.823522567749023 	 7.925581455230713 10 0 0 
H 	 9.821671485900879 	 13.203174591064453 	 7.944025039672852 10 0 0 
H 	 12.032705307006836 	 9.580138206481934 	 7.903830051422119 10 0 0 
H 	 9.906115531921387 	 10.747721672058105 	 7.914758682250977 10 0 0 
H 	 3.556006908416748 	 11.98684310913086 	 7.9569902420043945 10 0 0 
H 	 5.9171671867370605 	 1.312432050704956 	 7.9494309425354 10 0 0 
H 	 6.0160064697265625 	 12.082919120788574 	 7.9269232749938965 10 0 0 
H 	 7.209245681762695 	 14.19304370880127 	 7.920876502990723 10 0 0 
57 
 TIme: 7 fs -- step count: 7 
Fe 	 0.05352134257555008 	 1.6437621116638184 	 7.95993709564209 10 0 0 
N 	 12.74867057800293 	 2.615145206451416 	 7.964295864105225 10 0 0 
N 	 1.0187078714370728 	 3.427460193634033 	 7.951643943786621 10 0 0 
N 	 1.8196877241134644 	 0.7670883536338806 	 7.964211463928223 10 0 0 
N 	 13.565614700317383 	 14.904348373413086 	 7.960011959075928 10 0 0 
N 	 11.3254976272583 	 0.791077733039856 	 7.962647914886475 10 0 0 
N 	 3.1886017322540283 	 2.574777364730835 	 7.962053298950195 10 0 0 
N 	 1.087494134902954 	 13.537303924560547 	 7.953320503234863 10 0 0 
N 	 13.500727653503418 	 4.804001808166504 	 7.957479476928711 10 0 0 
C 	 12.668463706970215 	 3.9417531490325928 	 7.9639787673950195 10 0 0 
C 	 11.594267845153809 	 1.9588528871536255 	 7.967545509338379 10 0 0 
C 	 11.207355499267578 	 4.223769187927246 	 7.9687724113464355 10 0 0 
C 	 10.560646057128906 	 3.0232343673706055 	 7.972947120666504 10 0 0 
C 	 9.210226058959961 	 3.0287365913391113 	 7.973633766174316 10 0 0 
C 	 10.456840515136719 	 5.346085071563721 	 7.963877201080322 10 0 0 
C 	 9.18718433380127 	 5.278350830078125 	 7.960480213165283 10 0 0 
C 	 8.564339637756348 	 4.123110294342041 	 7.96549654006958 10 0 0 
C 	 0.48881813883781433 	 4.562250137329102 	 7.947532653808594 10 0 0 
C 	 2.34489369392395 	 3.510885238647461 	 7.954089164733887 10 0 0 