57 
 TIme: 0 fs -- step count: 0 
Fe 	 0.049226101487874985 	 1.642391324043274 	 7.95993709564209 10 0 0 
N 	 12.844337463378906 	 2.5635976791381836 	 7.964048862457275 10 0 0 
N 	 0.969565749168396 	 3.3405792713165283 	 7.9516777992248535 10 0 0 
N 	 1.7452462911605835 	 0.7213186025619507 	 7.964211463928223 10 0 0 
N 	 13.620621681213379 	 15.004631996154785 	 7.96103572845459 10 0 0 
N 	 11.30234432220459 	 0.6809812784194946 	 7.962152481079102 10 0 0 
N 	 3.2875497341156006 	 2.6040070056915283 	 7.962613105773926 10 0 0 
N 	 1.0080760717391968 	 13.461332321166992 	 7.95261287689209 10 0 0 
N 	 13.58028507232666 	 4.883357524871826 	 7.956851959228516 10 0 0 
C 	 12.651456832885742 	 3.9416849613189697 	 7.964419841766357 10 0 0 
C 	 11.585667610168457 	 1.9725624322891235 	 7.968090057373047 10 0 0 
C 	 11.229203224182129 	 4.238184452056885 	 7.969144344329834 10 0 0 
C 	 10.560249328613281 	 2.9982223510742188 	 7.973506450653076 10 0 0 
C 	 9.164339065551758 	 2.925591468811035 	 7.9744791984558105 10 0 0 
C 	 10.517333030700684 	 5.441678047180176 	 7.963877201080322 10 0 0 
C 	 9.123797416687012 	 5.368602752685547 	 7.959720611572266 10 0 0 
C 	 8.455253601074219 	 4.126491069793701 	 7.965120792388916 10 0 0 
C 	 0.37988710403442383 	 4.600240230560303 	 7.947768688201904 10 0 0 
C 	 2.3467941284179688 	 3.5330092906951904 	 7.954089164733887 10 0 0 
C 	 1.4085006713867188 	 5.626392841339111 	 7.9378581047058105 10 0 0 
C 	 2.6463463306427 	 4.954493999481201 	 7.94427490234375 10 0 0 
C 	 3.8521525859832764 	 5.660750865936279 	 7.936738014221191 10 0 0 
C 	 1.341812252998352 	 7.022339820861816 	 7.9206624031066895 10 0 0 
C 	 2.5464234352111816 	 7.727330684661865 	 7.911569595336914 10 0 0 
C 	 3.7858943939208984 	 7.05487060546875 	 7.919137001037598 10 0 0 
C 	 1.9364534616470337 	 14.403970718383789 	 7.961206912994385 10 0 0 
C 	 3.0046029090881348 	 1.3119521141052246 	 7.964545249938965 10 0 0 
C 	 3.3568472862243652 	 14.105916976928711 	 7.961252212524414 10 0 0 
C 	 4.028955459594727 	 0.28379005193710327 	 7.960920810699463 10 0 0 
C 	 5.425656318664551 	 0.34911295771598816 	 7.949283599853516 10 0 0 
C 	 4.06217098236084 	 12.899043083190918 	 7.953490734100342 10 0 0 
C 	 5.4555816650390625 	 12.965686798095703 	 7.938312530517578 10 0 0 
C 	 6.129103183746338 	 14.205299377441406 	 7.935227870941162 10 0 0 
C 	 14.208539009094238 	 13.743756294250488 	 7.951022148132324 10 0 0 
C 	 12.244080543518066 	 14.813860893249512 	 7.95625638961792 10 0 0 
C 	 13.17762279510498 	 12.71878433227539 	 7.9381890296936035 10 0 0 
C 	 11.941954612731934 	 13.3943452835083 	 7.942727088928223 10 0 0 
C 	 10.731831550598145 	 12.696130752563477 	 7.936424255371094 10 0 0 
C 	 13.235696792602539 	 11.322027206420898 	 7.926468372344971 10 0 0 
C 	 12.026811599731445 	 10.623968124389648 	 7.916197299957275 10 0 0 
C 	 10.790377616882324 	 11.301950454711914 	 7.921841621398926 10 0 0 
H 	 11.042372703552246 	 6.397445201873779 	 7.96368408203125 10 0 0 
H 	 8.659680366516113 	 1.9588258266448975 	 7.9816131591796875 10 0 0 
H 	 8.536705017089844 	 6.287779331207275 	 7.952683448791504 10 0 0 
H 	 7.364193916320801 	 4.107934951782227 	 7.960977077484131 10 0 0 
H 	 0.3784676492214203 	 7.533129692077637 	 7.915567874908447 10 0 0 
H 	 4.805927276611328 	 5.131964683532715 	 7.945071220397949 10 0 0 
H 	 2.532830238342285 	 8.818387985229492 	 7.899201393127441 10 0 0 
H 	 4.70771598815918 	 7.638824939727783 	 7.914426326751709 10 0 0 
H 	 14.195172309875488 	 10.8041410446167 	 7.9256181716918945 10 0 0 
H 	 9.781888008117676 	 13.23188304901123 	 7.944494724273682 10 0 0 
H 	 12.034334182739258 	 9.532865524291992 	 7.903205871582031 10 0 0 
H 	 9.86556339263916 	 10.72279167175293 	 7.914417266845703 10 0 0 
H 	 3.5318636894226074 	 11.94623851776123 	 7.9573163986206055 10 0 0 
H 	 5.936319828033447 	 1.312678337097168 	 7.949203014373779 10 0 0 
H 	 6.038874626159668 	 12.043989181518555 	 7.92648983001709 10 0 0 
H 	 7.220230579376221 	 14.218891143798828 	 7.920723915100098 10 0 0 
57 
 TIme: 1 fs -- step count: 1 
Fe 	 0.0544176883995533 	 1.6440857648849487 	 7.95993709564209 10 0 0 
N 	 12.814574241638184 	 2.57963228225708 	 7.964134693145752 10 0 0 
N 	 0.9848592877388 	 3.3666019439697266 	 7.951660633087158 10 0 0 
N 	 1.7678253650665283 	 0.7353232502937317 	 7.964211463928223 10 0 0 
N 	 13.604214668273926 	 14.9747314453125 	 7.960729122161865 10 0 0 
N 	 11.309403419494629 	 0.7147923707962036 	 7.962305068969727 10 0 0 
N 	 3.25650954246521 	 2.5949316024780273 	 7.962437629699707 10 0 0 
N 	 1.032422423362732 	 13.484963417053223 	 7.9528303146362305 10 0 0 
N 	 13.555819511413574 	 4.859034061431885 	 7.957046985626221 10 0 0 
C 	 12.655383110046387 	 3.941864252090454 	 7.96429967880249 10 0 0 
C 	 11.58749771118164 	 1.9693200588226318 	 7.967944622039795 10 0 0 
C 	 11.22419261932373 	 4.234287261962891 	 7.9690423011779785 10 0 0 
C 	 10.560821533203125 	 3.0042383670806885 	 7.973353862762451 10 0 0 
C 	 9.18618392944336 	 2.970362424850464 	 7.974126815795898 10 0 0 
C 	 10.492143630981445 	 5.398621082305908 	 7.963892936706543 10 0 0 
C 	 9.150786399841309 	 5.32839822769165 	 7.960043907165527 10 0 0 
C 	 8.503194808959961 	 4.126096248626709 	 7.965285301208496 10 0 0 
C 	 0.4088795483112335 	 4.590875625610352 	 7.947694778442383 10 0 0 
C 	 2.3469090461730957 	 3.5277247428894043 	 7.9540934562683105 10 0 0 
C 	 1.4153664112091064 	 5.625901699066162 	 7.93778133392334 10 0 0 
C 	 2.642565965652466 	 4.959469795227051 	 7.944151878356934 10 0 0 
C 	 3.809282064437866 	 5.685934066772461 	 7.9363627433776855 10 0 0 
C 	 1.386663794517517 	 7.00014591217041 	 7.920905113220215 10 0 0 
C 	 2.545985221862793 	 7.679333686828613 	 7.912139415740967 10 0 0 
C 	 3.745925188064575 	 7.028308391571045 	 7.919442176818848 10 0 0 
C 	 1.9345808029174805 	 14.375570297241211 	 7.960990905761719 10 0 0 
C 	 3.0023107528686523 	 1.3186691999435425 	 7.964427471160889 10 0 0 
C 	 3.3499717712402344 	 14.085395812988281 	 7.961086273193359 10 0 0 
C 	 4.04061222076416 	 0.30162402987480164 	 7.960747241973877 10 0 0 
C 	 5.388067245483398 	 0.3284410238265991 	 7.949510097503662 10 0 0 
C 	 4.08740758895874 	 12.941237449645996 	 7.953247547149658 10 0 0 
C 	 5.429055690765381 	 13.005075454711914 	 7.93878173828125 10 0 0 
C 	 6.093907833099365 	 14.180439949035645 	 7.935579776763916 10 0 0 
C 	 14.179614067077637 	 13.752998352050781 	 7.951022148132324 10 0 0 
C 	 12.267599105834961 	 14.79440975189209 	 7.956132888793945 10 0 0 
C 	 13.170605659484863 	 12.719256401062012 	 7.938235282897949 10 0 0 
C 	 11.945968627929688 	 13.388982772827148 	 7.942727088928223 10 0 0 
C 	 10.774505615234375 	 12.670506477355957 	 7.936093807220459 10 0 0 
C 	 13.19095516204834 	 11.344510078430176 	 7.926502704620361 10 0 0 
C 	 12.02748966217041 	 10.671931266784668 	 7.91676139831543 10 0 0 
C 	 10.830507278442383 	 11.328332901000977 	 7.922172546386719 10 0 0 
H 	 11.05077838897705 	 6.412979602813721 	 7.96368408203125 10 0 0 
H 	 8.651236534118652 	 1.9433153867721558 	 7.981719493865967 10 0 0 
H 	 8.527286529541016 	 6.302392959594727 	 7.952572822570801 10 0 0 
H 	 7.346938610076904 	 4.107691764831543 	 7.960907459259033 10 0 0 
H 	 0.36302077770233154 	 7.5416259765625 	 7.9154887199401855 10 0 0 
H 	 4.821571350097656 	 5.123411178588867 	 7.9452080726623535 10 0 0 
H 	 2.532705068588257 	 8.835390090942383 	 7.899017333984375 10 0 0 
H 	 4.721990585327148 	 7.64790153503418 	 7.914356708526611 10 0 0 
H 	 14.210610389709473 	 10.795478820800781 	 7.9256181716918945 10 0 0 
H 	 9.766261100769043 	 13.240310668945312 	 7.944620609283447 10 0 0 
H 	 12.034371376037598 	 9.515854835510254 	 7.9030046463012695 10 0 0 
H 	 9.851238250732422 	 10.71378231048584 	 7.914304733276367 10 0 0 
H 	 3.523277759552002 	 11.930547714233398 	 7.957370281219482 10 0 0 
H 	 5.945478439331055 	 1.3321832418441772 	 7.9492082595825195 10 0 0 
H 	 6.048264980316162 	 12.029248237609863 	 7.926302433013916 10 0 0 
H 	 7.24075984954834 	 14.217531204223633 	 7.920450210571289 10 0 0 
57 
 TIme: 2 fs -- step count: 2 
Fe 	 0.06936144083738327 	 1.648776650428772 	 7.959923267364502 10 0 0 
N 	 12.72437572479248 	 2.6282265186309814 	 7.964389324188232 10 0 0 
N 	 1.0312961339950562 	 3.449509382247925 	 7.951583385467529 10 0 0 
N 	 1.8391563892364502 	 0.7789566516876221 	 7.964191436767578 10 0 0 
N 	 13.551685333251953 	 14.878923416137695 	 7.959749698638916 10 0 0 
N 	 11.331329345703125 	 0.8187828063964844 	 7.962769985198975 10 0 0 
N 	 3.1639931201934814 	 2.5675222873687744 	 7.961911201477051 10 0 0 
N 	 1.106156587600708 	 13.555152893066406 	 7.95347785949707 10 0 0 
N 	 13.480698585510254 	 4.784023284912109 	 7.957641124725342 10 0 0 
C 	 12.669889450073242 	 3.941192388534546 	 7.963932037353516 10 0 0 
C 	 11.595470428466797 	 1.9580261707305908 	 7.9674973487854 10 0 0 
C 	 11.20423698425293 	 4.223341464996338 	 7.968738555908203 10 0 0 
C 	 10.559288024902344 	 3.0259652137756348 	 7.972894191741943 10 0 0 
C 	 9.217076301574707 	 3.044682741165161 	 7.973513603210449 10 0 0 
C 	 10.447386741638184 	 5.331616401672363 	 7.963940620422363 10 0 0 
C 	 9.196755409240723 	 5.263983726501465 	 7.960587024688721 10 0 0 
C 	 8.581790924072266 	 4.123046875 	 7.965523719787598 10 0 0 
C 	 0.4985475242137909 	 4.558614253997803 	 7.947494029998779 10 0 0 
C 	 2.3441147804260254 	 3.5086357593536377 	 7.954144477844238 10 0 0 
C 	 1.438543677330017 	 5.625274181365967 	 7.937533378601074 10 0 0 
C 	 2.631716728210449 	 4.979671001434326 	 7.943731784820557 10 0 0 
C 	 3.742607831954956 	 5.73047399520874 	 7.935739040374756 10 0 0 
C 	 1.4612056016921997 	 6.96873140335083 	 7.921274185180664 10 0 0 
C 	 2.543119430541992 	 7.600529193878174 	 7.913109302520752 10 0 0 
C 	 3.6814544200897217 	 6.98291015625 	 7.9200968742370605 10 0 0 
C 	 1.928578495979309 	 14.291287422180176 	 7.960347652435303 10 0 0 
C 	 2.990811347961426 	 1.3403531312942505 	 7.964073657989502 10 0 0 
C 	 3.3336501121520996 	 14.020787239074707 	 7.960549831390381 10 0 0 
C 	 4.083125114440918 	 0.35271236300468445 	 7.9601640701293945 10 0 0 
C 	 5.301490783691406 	 0.32803982496261597 	 7.95023250579834 10 0 0 
C 	 4.129727363586426 	 13.007061958312988 	 7.952746391296387 10 0 0 
C 	 5.386266708374023 	 13.068558692932129 	 7.939451694488525 10 0 0 
C 	 6.050683498382568 	 14.100898742675781 	 7.935769081115723 10 0 0 
C 	 14.089521408081055 	 13.78536605834961 	 7.951053619384766 10 0 0 
C 	 12.343814849853516 	 14.735771179199219 	 7.955772876739502 10 0 0 
C 	 13.146821022033691 	 12.720108985900879 	 7.938357830047607 10 0 0 
C 	 11.959050178527832 	 13.370354652404785 	 7.942690849304199 10 0 0 
C 	 10.8408784866333 	 12.625032424926758 	 7.935590744018555 10 0 0 
C 	 13.116593360900879 	 11.376304626464844 	 7.926525592803955 10 0 0 
C 	 12.030713081359863 	 10.750608444213867 	 7.917664527893066 10 0 0 
C 	 10.895255088806152 	 11.373507499694824 	 7.922725677490234 10 0 0 
H 	 11.040749549865723 	 6.395519256591797 	 7.96368408203125 10 0 0 
H 	 8.659636497497559 	 1.961488127708435 	 7.9815592765808105 10 0 0 
H 	 8.538042068481445 	 6.2853007316589355 	 7.9527058601379395 10 0 0 
H 	 7.366612434387207 	 4.108087539672852 	 7.960975170135498 10 0 0 
H 	 0.38143235445022583 	 7.532835483551025 	 7.9155778884887695 10 0 0 
H 	 4.804717540740967 	 5.133199214935303 	 7.945054054260254 10 0 0 
H 	 2.5331339836120605 	 8.81499195098877 	 7.899265289306641 10 0 0 
H 	 4.70459508895874 	 7.636878490447998 	 7.914464950561523 10 0 0 
H 	 14.192327499389648 	 10.804314613342285 	 7.925625324249268 10 0 0 
H 	 9.782846450805664 	 13.229742050170898 	 7.944458484649658 10 0 0 
H 	 12.034055709838867 	 9.53622055053711 	 7.903258800506592 10 0 0 
H 	 9.868704795837402 	 10.72470474243164 	 7.914445400238037 10 0 0 
H 	 3.5329997539520264 	 11.947477340698242 	 7.957270622253418 10 0 0 
H 	 5.9397382736206055 	 1.3302090167999268 	 7.949265003204346 10 0 0 
H 	 6.03795862197876 	 12.045974731445312 	 7.926504611968994 10 0 0 
H 	 7.234978675842285 	 14.21173095703125 	 7.920525074005127 10 0 0 
57 
 TIme: 3 fs -- step count: 3 
Fe 	 0.09287483990192413 	 1.655698299407959 	 7.959875583648682 10 0 0 
N 	 12.570477485656738 	 2.7111763954162598 	 7.964779376983643 10 0 0 
N 	 1.1241188049316406 	 3.5786304473876953 	 7.951479434967041 10 0 0 
N 	 1.9682830572128296 	 0.8572205305099487 	 7.964136123657227 10 0 0 
N 	 13.47608757019043 	 14.73855972290039 	 7.958314895629883 10 0 0 
N 	 11.358689308166504 	 0.9513558745384216 	 7.963361740112305 10 0 0 
N 	 3.013122081756592 	 2.5235698223114014 	 7.96104621887207 10 0 0 
N 	 1.130380630493164 	 13.583257675170898 	 7.953731536865234 10 0 0 
N 	 13.384726524353027 	 4.6889848709106445 	 7.958397388458252 10 0 0 
C 	 12.664861679077148 	 3.897615909576416 	 7.9635772705078125 10 0 0 
C 	 11.628283500671387 	 1.9868537187576294 	 7.966920852661133 10 0 0 
C 	 11.156704902648926 	 4.203890800476074 	 7.968252182006836 10 0 0 
C 	 10.550100326538086 	 3.074676036834717 	 7.97212028503418 10 0 0 
C 	 9.242352485656738 	 3.1223461627960205 	 7.972846031188965 10 0 0 
C 	 10.396662712097168 	 5.267300128936768 	 7.963988304138184 10 0 0 
C 	 9.245196342468262 	 5.196526050567627 	 7.9611592292785645 10 0 0 
C 	 8.664416313171387 	 4.11955451965332 	 7.965701103210449 10 0 0 
C 	 0.6471896767616272 	 4.516177177429199 	 7.947117805480957 10 0 0 
C 	 2.3260653018951416 	 3.469805955886841 	 7.954239845275879 10 0 0 
C 	 1.4864981174468994 	 5.622400760650635 	 7.937124252319336 10 0 0 
C 	 2.6113600730895996 	 5.028940200805664 	 7.942895412445068 10 0 0 
C 	 3.6786224842071533 	 5.780998706817627 	 7.935080528259277 10 0 0 
C 	 1.5395430326461792 	 6.943474292755127 	 7.921607971191406 10 0 0 
C 	 2.5399932861328125 	 7.517474174499512 	 7.914187431335449 10 0 0 
C 	 3.6135709285736084 	 6.934807300567627 	 7.920969009399414 10 0 0 
C 	 2.0214152336120605 	 14.239282608032227 	 7.960106372833252 10 0 0 
C 	 2.957932472229004 	 1.3780673742294312 	 7.963483810424805 10 0 0 
C 	 3.3154397010803223 	 13.906341552734375 	 7.959555625915527 10 0 0 
C 	 4.145066738128662 	 0.43278768658638 	 7.95927619934082 10 0 0 
C 	 5.198370456695557 	 0.37819135189056396 	 7.951299667358398 10 0 0 
C 	 4.170464992523193 	 13.070330619812012 	 7.952110290527344 10 0 0 
C 	 5.340114593505859 	 13.123208045959473 	 7.939976215362549 10 0 0 
C 	 6.031717777252197 	 13.970511436462402 	 7.935377597808838 10 0 0 
C 	 13.942964553833008 	 13.818434715270996 	 7.950940132141113 10 0 0 
C 	 12.449685096740723 	 14.629356384277344 	 7.955051898956299 10 0 0 
C 	 13.097408294677734 	 12.72486400604248 	 7.938563823699951 10 0 0 
C 	 11.989078521728516 	 13.333077430725098 	 7.9425740242004395 10 0 0 
C 	 10.904071807861328 	 12.573152542114258 	 7.935147762298584 10 0 0 
C 	 13.038337707519531 	 11.401776313781738 	 7.926529407501221 10 0 0 
C 	 12.034218788146973 	 10.833489418029785 	 7.918570518493652 10 0 0 
C 	 10.963438987731934 	 11.421236991882324 	 7.923289775848389 10 0 0 
H 	 10.994010925292969 	 6.312753200531006 	 7.96368408203125 10 0 0 
H 	 8.701677322387695 	 2.0463991165161133 	 7.9808855056762695 10 0 0 
H 	 8.58958625793457 	 6.204843997955322 	 7.953328609466553 10 0 0 
H 	 7.46091365814209 	 4.109403610229492 	 7.9613189697265625 10 0 0 
H 	 0.4666993021965027 	 7.489840507507324 	 7.916013717651367 10 0 0 
H 	 4.723156452178955 	 5.179754734039307 	 7.944327354431152 10 0 0 
H 	 2.534268617630005 	 8.719526290893555 	 7.900378227233887 10 0 0 
H 	 4.623868942260742 	 7.585353374481201 	 7.9149322509765625 10 0 0 
H 	 14.107418060302734 	 10.847820281982422 	 7.925682544708252 10 0 0 
H 	 9.863667488098145 	 13.181574821472168 	 7.943741798400879 10 0 0 
H 	 12.033428192138672 	 9.631645202636719 	 7.904409408569336 10 0 0 
H 	 9.949727058410645 	 10.775815963745117 	 7.915099620819092 10 0 0 
H 	 3.579108476638794 	 12.030265808105469 	 7.95688009262085 10 0 0 
H 	 5.898749351501465 	 1.2776446342468262 	 7.949400424957275 10 0 0 
H 	 5.987749099731445 	 12.126992225646973 	 7.927502155303955 10 0 0 
H 	 7.166818618774414 	 14.196965217590332 	 7.921402931213379 10 0 0 
57 
 TIme: 4 fs -- step count: 4 
Fe 	 0.12353736907243729 	 1.6642091274261475 	 7.959827899932861 10 0 0 
N 	 12.402031898498535 	 2.8031392097473145 	 7.965208530426025 10 0 0 
N 	 1.304667353630066 	 3.597008466720581 	 7.951954364776611 10 0 0 
N 	 2.0533876419067383 	 0.9178009033203125 	 7.964104652404785 10 0 0 
N 	 13.50353717803955 	 14.791183471679688 	 7.958870887756348 10 0 0 
N 	 11.366382598876953 	 1.0112069845199585 	 7.963689804077148 10 0 0 
N 	 2.827662229537964 	 2.4929299354553223 	 7.959939956665039 10 0 0 
N 	 1.1093003749847412 	 13.569975852966309 	 7.9536027908325195 10 0 0 
N 	 13.339272499084473 	 4.650446891784668 	 7.9587721824646 10 0 0 
C 	 12.574949264526367 	 3.798027992248535 	 7.963696002960205 10 0 0 
C 	 11.659906387329102 	 2.1168999671936035 	 7.966709613800049 10 0 0 
C 	 11.067256927490234 	 4.171578884124756 	 7.967629909515381 10 0 0 
C 	 10.529266357421875 	 3.1646790504455566 	 7.971030235290527 10 0 0 
C 	 9.2888822555542 	 3.1802518367767334 	 7.972263813018799 10 0 0 
C 	 10.373383522033691 	 5.195892333984375 	 7.964138984680176 10 0 0 
C 	 9.266735076904297 	 5.118729114532471 	 7.961705207824707 10 0 0 
C 	 8.740158081054688 	 4.144750595092773 	 7.965634822845459 10 0 0 
C 	 0.7807906270027161 	 4.629244327545166 	 7.945801734924316 10 0 0 
C 	 2.31033992767334 	 3.4234814643859863 	 7.954325199127197 10 0 0 
C 	 1.5668420791625977 	 5.610638618469238 	 7.936619758605957 10 0 0 
C 	 2.578235387802124 	 5.124648571014404 	 7.941499710083008 10 0 0 
C 	 3.607694387435913 	 5.805465221405029 	 7.934770107269287 10 0 0 
C 	 1.598745346069336 	 6.899374485015869 	 7.922165870666504 10 0 0 
C 	 2.5651631355285645 	 7.4408698081970215 	 7.9152302742004395 10 0 0 
C 	 3.53566837310791 	 6.911680698394775 	 7.921662330627441 10 0 0 
C 	 2.222975254058838 	 14.211660385131836 	 7.9602155685424805 10 0 0 
C 	 3.001396417617798 	 1.4385470151901245 	 7.962686538696289 10 0 0 
C 	 3.281430244445801 	 13.757195472717285 	 7.958182334899902 10 0 0 
C 	 4.0608086585998535 	 0.5464450120925903 	 7.959369659423828 10 0 0 
C 	 5.203587532043457 	 0.41015884280204773 	 7.951515197753906 10 0 0 
C 	 4.186418056488037 	 13.126556396484375 	 7.9515814781188965 10 0 0 
C 	 5.251187801361084 	 13.104924201965332 	 7.940609455108643 10 0 0 
C 	 6.058800220489502 	 13.861204147338867 	 7.934492588043213 10 0 0 
C 	 13.82981014251709 	 13.635124206542969 	 7.9489006996154785 10 0 0 
C 	 12.357166290283203 	 14.43255615234375 	 7.9530839920043945 10 0 0 
C 	 13.017516136169434 	 12.743550300598145 	 7.938918113708496 10 0 0 
C 	 12.047308921813965 	 13.278763771057129 	 7.942396640777588 10 0 0 
C 	 10.971932411193848 	 12.54759407043457 	 7.935083866119385 10 0 0 
C 	 12.979122161865234 	 11.44539737701416 	 7.926800727844238 10 0 0 
C 	 12.009623527526855 	 10.910118103027344 	 7.91932487487793 10 0 0 
C 	 11.041513442993164 	 11.441856384277344 	 7.92357873916626 10 0 0 
H 	 10.911917686462402 	 6.168796062469482 	 7.96368408203125 10 0 0 
H 	 8.774805068969727 	 2.194601535797119 	 7.979725360870361 10 0 0 
H 	 8.680431365966797 	 6.063856601715088 	 7.954423427581787 10 0 0 
H 	 7.6272149085998535 	 4.111288547515869 	 7.961921215057373 10 0 0 
H 	 0.6152170300483704 	 7.4156084060668945 	 7.9167656898498535 10 0 0 
H 	 4.5804901123046875 	 5.262092113494873 	 7.943050384521484 10 0 0 
H 	 2.5357987880706787 	 8.552156448364258 	 7.902325630187988 10 0 0 
H 	 4.482710361480713 	 7.494890213012695 	 7.915769100189209 10 0 0 
H 	 13.959455490112305 	 10.922986030578613 	 7.925777912139893 10 0 0 
H 	 10.004851341247559 	 13.096990585327148 	 7.942509651184082 10 0 0 
H 	 12.032824516296387 	 9.79889965057373 	 7.906410217285156 10 0 0 
H 	 10.091343879699707 	 10.86553955078125 	 7.91624641418457 10 0 0 
H 	 3.6570963859558105 	 12.174701690673828 	 7.956214427947998 10 0 0 
H 	 5.863348007202148 	 1.2351634502410889 	 7.949533462524414 10 0 0 
H 	 5.906615734100342 	 12.262616157531738 	 7.929123401641846 10 0 0 
H 	 7.0722527503967285 	 14.176044464111328 	 7.922613620758057 10 0 0 
57 
 TIme: 5 fs -- step count: 5 
Fe 	 0.16096709668636322 	 1.6739437580108643 	 7.959780216217041 10 0 0 
N 	 12.397544860839844 	 2.8036277294158936 	 7.965665340423584 10 0 0 
N 	 1.2695890665054321 	 3.6580088138580322 	 7.9518303871154785 10 0 0 
N 	 2.056462526321411 	 0.9430208802223206 	 7.964118957519531 10 0 0 
N 	 13.51467227935791 	 14.816526412963867 	 7.959140777587891 10 0 0 
N 	 11.370473861694336 	 1.045492172241211 	 7.963931083679199 10 0 0 
N 	 2.6854143142700195 	 2.398742198944092 	 7.9594645500183105 10 0 0 
N 	 1.1480406522750854 	 13.589010238647461 	 7.9538116455078125 10 0 0 
N 	 13.313604354858398 	 4.6292595863342285 	 7.959034442901611 10 0 0 
C 	 12.475855827331543 	 3.9827818870544434 	 7.963595867156982 10 0 0 
C 	 11.447736740112305 	 2.1020901203155518 	 7.967130184173584 10 0 0 
C 	 10.970614433288574 	 4.1829729080200195 	 7.966721057891846 10 0 0 
C 	 10.467978477478027 	 3.23531174659729 	 7.9698686599731445 10 0 0 
C 	 9.422103881835938 	 3.255362033843994 	 7.971478462219238 10 0 0 
C 	 10.38393497467041 	 5.044208526611328 	 7.964527130126953 10 0 0 
C 	 9.325728416442871 	 5.053516387939453 	 7.96230936050415 10 0 0 
C 	 8.824445724487305 	 4.13117790222168 	 7.965820789337158 10 0 0 
C 	 0.9635533094406128 	 4.7849016189575195 	 7.9440999031066895 10 0 0 
C 	 2.4451286792755127 	 3.517101526260376 	 7.9538774490356445 10 0 0 
C 	 1.5962764024734497 	 5.634174823760986 	 7.9356160163879395 10 0 0 
C 	 2.6049153804779053 	 5.230606555938721 	 7.939945697784424 10 0 0 
C 	 3.4625699520111084 	 5.7963457107543945 	 7.93475866317749 10 0 0 
C 	 1.6729060411453247 	 6.757376670837402 	 7.923825740814209 10 0 0 
C 	 2.552523374557495 	 7.356372833251953 	 7.916329860687256 10 0 0 
C 	 3.472747325897217 	 6.850933074951172 	 7.922812461853027 10 0 0 
C 	 2.34865140914917 	 14.168181419372559 	 7.9600982666015625 10 0 0 
C 	 3.1902384757995605 	 1.4151545763015747 	 7.961915016174316 10 0 0 
C 	 3.211359739303589 	 13.601052284240723 	 7.957036018371582 10 0 0 
C 	 3.943237781524658 	 0.6930865049362183 	 7.959545135498047 10 0 0 
C 	 5.123170852661133 	 0.34630492329597473 	 7.9519853591918945 10 0 0 
C 	 4.15757942199707 	 13.239986419677734 	 7.9518046379089355 10 0 0 
C 	 5.1790971755981445 	 13.133581161499023 	 7.941516399383545 10 0 0 
C 	 6.02679967880249 	 13.741636276245117 	 7.9343953132629395 10 0 0 
C 	 13.681431770324707 	 13.450773239135742 	 7.946770191192627 10 0 0 
C 	 12.286898612976074 	 14.215739250183105 	 7.950974464416504 10 0 0 
C 	 12.977677345275879 	 12.692882537841797 	 7.938708305358887 10 0 0 
C 	 12.023163795471191 	 13.211587905883789 	 7.942056655883789 10 0 0 
C 	 11.127645492553711 	 12.563028335571289 	 7.935399532318115 10 0 0 
C 	 12.906570434570312 	 11.586641311645508 	 7.927913188934326 10 0 0 
C 	 12.024373054504395 	 10.993539810180664 	 7.920254230499268 10 0 0 
C 	 11.104352951049805 	 11.500372886657715 	 7.92424201965332 10 0 0 
H 	 10.834678649902344 	 6.039351463317871 	 7.9636664390563965 10 0 0 
H 	 8.838057518005371 	 2.3304736614227295 	 7.978646755218506 10 0 0 
H 	 8.756916999816895 	 5.947634696960449 	 7.95532751083374 10 0 0 
H 	 7.765881061553955 	 4.111342430114746 	 7.9624409675598145 10 0 0 
H 	 0.749780535697937 	 7.352630615234375 	 7.9173903465271 10 0 0 
H 	 4.450397491455078 	 5.34086799621582 	 7.941835403442383 10 0 0 
H 	 2.5355722904205322 	 8.415254592895508 	 7.903924942016602 10 0 0 
H 	 4.366527557373047 	 7.418912410736084 	 7.916449069976807 10 0 0 
H 	 13.825714111328125 	 10.986701011657715 	 7.925826549530029 10 0 0 
H 	 10.129887580871582 	 13.017621994018555 	 7.941349029541016 10 0 0 
H 	 12.033766746520996 	 9.934953689575195 	 7.908058166503906 10 0 0 
H 	 10.205755233764648 	 10.93988037109375 	 7.91719913482666 10 0 0 
H 	 3.69454288482666 	 12.261728286743164 	 7.955862998962402 10 0 0 
H 	 5.9019389152526855 	 1.2911787033081055 	 7.949464321136475 10 0 0 
H 	 5.905754566192627 	 12.323168754577637 	 7.929470062255859 10 0 0 
H 	 7.077583312988281 	 14.18387508392334 	 7.922643661499023 10 0 0 
57 
 TIme: 6 fs -- step count: 6 
Fe 	 0.20560328662395477 	 1.684618592262268 	 7.959732532501221 10 0 0 
N 	 12.364496231079102 	 2.820042610168457 	 7.966094493865967 10 0 0 
N 	 1.2545075416564941 	 3.7501742839813232 	 7.951492786407471 10 0 0 
N 	 2.1294896602630615 	 1.019631028175354 	 7.963907718658447 10 0 0 
N 	 13.476537704467773 	 14.752829551696777 	 7.958478927612305 10 0 0 
N 	 11.361515998840332 	 0.9728246927261353 	 7.963859558105469 10 0 0 
N 	 2.5247559547424316 	 2.29162859916687 	 7.959189414978027 10 0 0 
N 	 1.249267816543579 	 13.636427879333496 	 7.954336166381836 10 0 0 
N 	 13.373045921325684 	 4.680360317230225 	 7.958804130554199 10 0 0 
C 	 12.24498176574707 	 4.079056262969971 	 7.964129447937012 10 0 0 
C 	 11.23463249206543 	 2.243685245513916 	 7.967940807342529 10 0 0 
C 	 11.105338096618652 	 4.1009135246276855 	 7.965779781341553 10 0 0 
C 	 10.607233047485352 	 3.159376382827759 	 7.968553066253662 10 0 0 
C 	 9.49662971496582 	 3.249880075454712 	 7.9716033935546875 10 0 0 
C 	 10.430809020996094 	 4.990474224090576 	 7.965037822723389 10 0 0 
C 	 9.350078582763672 	 5.040112018585205 	 7.962811470031738 10 0 0 
C 	 8.848027229309082 	 4.112194061279297 	 7.966105937957764 10 0 0 
C 	 1.0818424224853516 	 4.766733169555664 	 7.944058418273926 10 0 0 
C 	 2.5254647731781006 	 3.6904995441436768 	 7.952871322631836 10 0 0 
C 	 1.602888822555542 	 5.634756088256836 	 7.934713840484619 10 0 0 
C 	 2.4923837184906006 	 5.129471778869629 	 7.940293312072754 10 0 0 
C 	 3.426816940307617 	 5.750988960266113 	 7.9352707862854 10 0 0 
C 	 1.6966274976730347 	 6.69242525100708 	 7.925053596496582 10 0 0 
C 	 2.5006914138793945 	 7.315684795379639 	 7.916707515716553 10 0 0 
C 	 3.4535536766052246 	 6.843943119049072 	 7.923527717590332 10 0 0 
C 	 2.2131338119506836 	 14.226308822631836 	 7.960361957550049 10 0 0 
C 	 3.1814444065093994 	 1.4731849431991577 	 7.961978912353516 10 0 0 
C 	 3.0247294902801514 	 13.394113540649414 	 7.956958770751953 10 0 0 
C 	 4.049688816070557 	 0.6604834198951721 	 7.958805084228516 10 0 0 
C 	 5.021451473236084 	 0.33824846148490906 	 7.952698230743408 10 0 0 
C 	 4.153395652770996 	 13.368358612060547 	 7.95343017578125 10 0 0 
C 	 5.219663619995117 	 13.086195945739746 	 7.9414873123168945 10 0 0 
C 	 6.1395182609558105 	 13.692237854003906 	 7.932932376861572 10 0 0 
C 	 13.625106811523438 	 13.480084419250488 	 7.94673490524292 10 0 0 
C 	 12.345914840698242 	 14.183989524841309 	 7.950689315795898 10 0 0 
C 	 12.932821273803711 	 12.712965965270996 	 7.9393744468688965 10 0 0 
C 	 12.068501472473145 	 13.186540603637695 	 7.94221305847168 10 0 0 
C 	 11.13985824584961 	 12.57422161102295 	 7.935608863830566 10 0 0 
C 	 12.905312538146973 	 11.6060209274292 	 7.927778720855713 10 0 0 
C 	 12.048417091369629 	 11.023943901062012 	 7.920820713043213 10 0 0 
C 	 11.118069648742676 	 11.535029411315918 	 7.9245805740356445 10 0 0 
H 	 10.78315258026123 	 5.97648811340332 	 7.963568210601807 10 0 0 
H 	 8.863049507141113 	 2.413543701171875 	 7.977957248687744 10 0 0 
H 	 8.759498596191406 	 5.947177410125732 	 7.955320358276367 10 0 0 
H 	 7.765194892883301 	 4.108860492706299 	 7.962508678436279 10 0 0 
H 	 0.8541117310523987 	 7.313453197479248 	 7.917745590209961 10 0 0 
H 	 4.406540870666504 	 5.384943962097168 	 7.941178321838379 10 0 0 
H 	 2.533543109893799 	 8.412304878234863 	 7.903966903686523 10 0 0 
H 	 4.369718074798584 	 7.418797016143799 	 7.916280269622803 10 0 0 
H 	 13.734343528747559 	 11.018182754516602 	 7.925745487213135 10 0 0 
H 	 10.20111083984375 	 12.958524703979492 	 7.9404683113098145 10 0 0 
H 	 12.035762786865234 	 9.93494701385498 	 7.908138275146484 10 0 0 
H 	 10.205583572387695 	 10.94264030456543 	 7.91725492477417 10 0 0 
H 	 3.680224657058716 	 12.3025484085083 	 7.955844879150391 10 0 0 
H 	 5.901523590087891 	 1.3058732748031616 	 7.949541091918945 10 0 0 
H 	 5.9827799797058105 	 12.34166145324707 	 7.928713321685791 10 0 0 
H 	 7.090401649475098 	 14.19140338897705 	 7.922579765319824 10 0 0 
57 
 TIme: 7 fs -- step count: 7 
Fe 	 0.25813594460487366 	 1.6964805126190186 	 7.9596848487854 10 0 0 
N 	 12.242241859436035 	 2.8849895000457764 	 7.96652364730835 10 0 0 
N 	 1.3733400106430054 	 3.580794095993042 	 7.953065395355225 10 0 0 
N 	 2.2105987071990967 	 1.1503156423568726 	 7.963454246520996 10 0 0 
N 	 13.43533706665039 	 14.666342735290527 	 7.9576334953308105 10 0 0 
N 	 11.347219467163086 	 0.9629694223403931 	 7.963979244232178 10 0 0 
N 	 2.262773036956787 	 2.2897768020629883 	 7.958515167236328 10 0 0 
N 	 1.3018096685409546 	 13.633650779724121 	 7.954411506652832 10 0 0 
N 	 13.37830638885498 	 4.701749324798584 	 7.958828926086426 10 0 0 
C 	 12.295849800109863 	 4.140528202056885 	 7.9643235206604 10 0 0 
C 	 11.228095054626465 	 2.134615659713745 	 7.968519687652588 10 0 0 
C 	 11.143885612487793 	 4.0487961769104 	 7.964829921722412 10 0 0 
C 	 10.658823013305664 	 3.177549123764038 	 7.967320919036865 10 0 0 
C 	 9.639750480651855 	 3.2473196983337402 	 7.971879482269287 10 0 0 
C 	 10.514299392700195 	 4.866872787475586 	 7.965941905975342 10 0 0 
C 	 9.347996711730957 	 5.08579683303833 	 7.96319580078125 10 0 0 
C 	 8.80274486541748 	 4.084349155426025 	 7.966401100158691 10 0 0 
C 	 1.004988670349121 	 4.704002857208252 	 7.945400238037109 10 0 0 
C 	 2.5277230739593506 	 3.8553993701934814 	 7.951681613922119 10 0 0 